 Gaussian 09, Revision C.01,
 Gaussian 09:  EM64L-G09RevC.01 23-Sep-2011

 -------------------------
 #opt freq blyp/6-31g(d,p)
 -------------------------

 99/9=1/99;
 -----------------------------------------------
 molecule_/home/mateus/github/db_singletoxygen 0
 -----------------------------------------------
 Charge =  0 Multiplicity = 1

 SCF Done:  E(RB-LYP) =  -77.2947294856     A.U. after   10 cycles
 SCF Done:  E(RB-LYP) =  -77.2952128588     A.U. after    9 cycles
 SCF Done:  E(RB-LYP) =  -77.2952141293     A.U. after    6 cycles
 Optimization completed.
    -- Stationary point found.
 Normal termination of Gaussian 09 at Wed Jul 10 16:52:03 2019.

 ---------------------------------------------------------------------
 #N Geom=AllCheck Guess=TCheck SCRF=Check GenChk RBLYP/6-31G(d,p) Freq
 ---------------------------------------------------------------------

 Structure from the checkpoint file:  /opt/g09/Gau-4231.chk
 -----------------------------------------------
 molecule_/home/mateus/github/db_singletoxygen 0
 -----------------------------------------------
 Charge =  0 Multiplicity = 1

                         Standard orientation:
 ---------------------------------------------------------------------
 Center     Atomic      Atomic             Coordinates (Angstroms)
 Number     Number       Type             X           Y           Z
 ---------------------------------------------------------------------
      1          6           0        0.000000    0.000000   -0.607677
      2          6           0        0.000000    0.000000    0.607677
      3          1           0        0.000000    0.000000   -1.679139
      4          1           0        0.000000    0.000000    1.679139
 ---------------------------------------------------------------------

 SCF Done:  E(RB-LYP) =  -77.2952141293     A.U. after    1 cycles

 The electronic state is 1-SG.
 Alpha  occ. eigenvalues --   -9.92805  -9.92617  -0.65655  -0.50022  -0.42953
 Alpha  occ. eigenvalues --   -0.23542  -0.23542
 Alpha virt. eigenvalues --    0.02097   0.02097   0.07755   0.12196   0.38805
 Alpha virt. eigenvalues --    0.44212   0.49599   0.49599   0.60583   0.60583
 Alpha virt. eigenvalues --    0.71053   0.77000   0.96769   1.11177   1.32045

 Mulliken atomic charges:
              1
     1  C   -0.116609
     2  C   -0.116609
     3  H    0.116609
     4  H    0.116609
 Sum of Mulliken atomic charges =   0.00000

 Dipole moment (field-independent basis, Debye):
    X=              0.0000    Y=              0.0000    Z=              0.0000  Tot=              0.0000
 Quadrupole moment (field-independent basis, Debye-Ang):
   XX=            -12.9711   YY=            -12.9711   ZZ=             -6.9593
   XY=              0.0000   XZ=              0.0000   YZ=              0.0000

  Exact polarizability:   8.085   0.000   8.085   0.000   0.000  28.598
 Approx polarizability:  11.161   0.000  11.161   0.000   0.000  66.763

                     1                      2                      3
                    PI                     PI                     PI
 Frequencies --   459.6940               459.6940               741.2545
 Red. masses --     1.5696                 1.5696                 1.0848
 Frc consts  --     0.1954                 0.1954                 0.3512
 IR Inten    --     0.0000                 0.0000                73.1335

                     4                      5                      6
                    PI                     SG                     SG
 Frequencies --   741.2545              2019.4776              3363.9803
 Red. masses --     1.0848                 3.8688                 1.0848
 Frc consts  --     0.3512                 9.2963                 7.2329
 IR Inten    --    73.1335                 0.0000                75.5311

                     7
                    SG
 Frequencies --  3458.7079
 Red. masses --     1.2238
 Frc consts  --     8.6259
 IR Inten    --     0.0000

 - Thermochemistry -
 -------------------
 Temperature   298.150 Kelvin.  Pressure   1.00000 Atm.
 Atom     1 has atomic number  6 and mass  12.00000

 Molecular mass:    26.01565 amu.
 Principal axes and moments of inertia in atomic units:
                           1         2         3
     Eigenvalues --     0.00000  51.94352  51.94352
           X            0.00000   0.00000   1.00000
           Y            0.00000   1.00000   0.00000
           Z            1.00000   0.00000   0.00000
 This molecule is a prolate symmetric top.
 Rotational symmetry number  1.
 Rotational temperature (Kelvin)      1.66746
 Rotational constant (GHZ):          34.744300
 Zero-point vibrational energy      67254.4 (Joules/Mol)
                                   16.07419 (Kcal/Mol)
 Warning -- explicit consideration of   2 degrees of freedom as
           vibrations may cause significant error
 Vibrational temperatures:    661.40   661.40  1066.50  1066.50  2905.57
          (Kelvin)           4840.01  4976.30

 Zero-point correction=                           0.025616 (Hartree/Particle)
 Thermal correction to Energy=                    0.028683
 Thermal correction to Enthalpy=                  0.029627
 Thermal correction to Gibbs Free Energy=         0.005844
 Sum of electronic and zero-point Energies=            -77.269598
 Sum of electronic and thermal Energies=               -77.266532
 Sum of electronic and thermal Enthalpies=             -77.265587
 Sum of electronic and thermal Free Energies=          -77.289370

                     E (Thermal)             CV                S
                      KCal/Mol        Cal/Mol-Kelvin    Cal/Mol-Kelvin
 Total                   17.999              9.163             50.055
 Electronic               0.000              0.000              0.000
 Translational            0.889              2.981             35.704
 Rotational               0.592              1.987             12.293
 Vibrational             16.517              4.195              2.057
 Vibration     1          0.818              1.339              0.767
 Vibration     2          0.818              1.339              0.767

 Optimization completed.
    -- Stationary point found.
 Normal termination of Gaussian 09 at Wed Jul 10 16:52:05 2019.
