 Gaussian 09, Revision C.01,
 Gaussian 09:  EM64L-G09RevC.01 23-Sep-2011

 -------------------------
 #opt freq blyp/6-31g(d,p)
 -------------------------

 99/9=1/99;
 -----------------------------------------------
 molecule_/home/mateus/github/db_singletoxygen 1
 -----------------------------------------------
 Charge =  0 Multiplicity = 1

 SCF Done:  E(RB-LYP) =  -119.058797315     A.U. after   12 cycles
 SCF Done:  E(RB-LYP) =  -119.060141884     A.U. after   10 cycles
 SCF Done:  E(RB-LYP) =  -119.060170539     A.U. after    7 cycles
 Optimization completed.
    -- Stationary point found.
 Normal termination of Gaussian 09 at Wed Jul 10 16:52:11 2019.

 ---------------------------------------------------------------------
 #N Geom=AllCheck Guess=TCheck SCRF=Check GenChk RBLYP/6-31G(d,p) Freq
 ---------------------------------------------------------------------

 Structure from the checkpoint file:  /opt/g09/Gau-4700.chk
 -----------------------------------------------
 molecule_/home/mateus/github/db_singletoxygen 1
 -----------------------------------------------
 Charge =  0 Multiplicity = 1

                         Standard orientation:
 ---------------------------------------------------------------------
 Center     Atomic      Atomic             Coordinates (Angstroms)
 Number     Number       Type             X           Y           Z
 ---------------------------------------------------------------------
      1          6           0        1.287199   -0.261433    0.000000
      2          6           0        0.000000    0.589637    0.000000
      3          6           0       -1.287199   -0.261433    0.000000
      4          1           0        2.190354    0.370268    0.000001
      5          1           0        1.334765   -0.912453   -0.889319
      6          1           0        1.334764   -0.912454    0.889319
      7          1           0        0.000000    1.254329   -0.882625
      8          1           0        0.000000    1.254330    0.882624
      9          1           0       -1.334765   -0.912453   -0.889319
     10          1           0       -2.190354    0.370267    0.000001
     11          1           0       -1.334765   -0.912454    0.889319
 ---------------------------------------------------------------------

 SCF Done:  E(RB-LYP) =  -119.060170539     A.U. after    1 cycles

 The electronic state is 1-A.
 Alpha  occ. eigenvalues --   -9.91776  -9.90951  -9.90950  -0.68659  -0.59704
 Alpha  occ. eigenvalues --   -0.50968  -0.39093  -0.37235  -0.33797  -0.32234
 Alpha  occ. eigenvalues --   -0.28294  -0.28208  -0.27439
 Alpha virt. eigenvalues --    0.07288   0.12157   0.12308   0.12415   0.14278
 Alpha virt. eigenvalues --    0.16497   0.16682   0.16684   0.19544   0.23082
 Alpha virt. eigenvalues --    0.47144   0.48145   0.50684   0.51579   0.53818

 Mulliken atomic charges:
              1
     1  C   -0.275884
     2  C   -0.136756
     3  C   -0.275884
     4  H    0.086029
     5  H    0.089144
     6  H    0.089144
     7  H    0.079946
     8  H    0.079946
     9  H    0.089144
    10  H    0.086029
    11  H    0.089144
 Sum of Mulliken atomic charges =   0.00000

 Dipole moment (field-independent basis, Debye):
    X=              0.0000    Y=              0.0475    Z=              0.0000  Tot=              0.0475
 Quadrupole moment (field-independent basis, Debye-Ang):
   XX=            -21.8959   YY=            -21.6495   ZZ=            -21.3628
   XY=              0.0000   XZ=              0.0000   YZ=              0.0000

  Exact polarizability:  38.011   0.000  33.768   0.000   0.000  32.845
 Approx polarizability:  51.650   0.000  51.558   0.000   0.000  52.237

                     1                      2                      3
                     A                      A                      A
 Frequencies --   217.4444               264.7856               355.9530
 Red. masses --     1.0277                 1.1371                 2.0576
 Frc consts  --     0.0286                 0.0470                 0.1536
 IR Inten    --     0.0000                 0.0006                 0.1460

                     4                      5                      6
                     A                      A                      A
 Frequencies --   737.8904               845.8299               892.7599
 Red. masses --     1.0794                 2.6447                 1.1009
 Frc consts  --     0.3463                 1.1148                 0.5170
 IR Inten    --     3.5098                 0.6702                 0.0000

                     7                      8                      9
                     A                      A                      A
 Frequencies --   909.3933              1024.5058              1147.7734
 Red. masses --     1.2174                 2.5202                 1.7747
 Frc consts  --     0.5932                 1.5585                 1.3775
 IR Inten    --     1.8483                 0.6095                 1.1833

                    10                     11                     12
                     A                      A                      A
 Frequencies --  1186.6689              1288.6399              1336.7573
 Red. masses --     1.6647                 1.1235                 1.4042
 Frc consts  --     1.3811                 1.0993                 1.4784
 IR Inten    --     0.2290                 0.0000                 8.3416

                    13                     14                     15
                     A                      A                      A
 Frequencies --  1379.4871              1398.1209              1467.5664
 Red. masses --     1.2442                 1.2249                 1.0473
 Frc consts  --     1.3950                 1.4107                 1.3290
 IR Inten    --     1.0657                 0.6395                 0.0457

                    16                     17                     18
                     A                      A                      A
 Frequencies --  1468.3397              1476.6115              1485.9465
 Red. masses --     1.0392                 1.0508                 1.0409
 Frc consts  --     1.3201                 1.3499                 1.3542
 IR Inten    --     0.0000                 1.1479                 8.0091

                    19                     20                     21
                     A                      A                      A
 Frequencies --  1492.4453              2952.5159              2958.5934
 Red. masses --     1.0760                 1.0597                 1.0347
 Frc consts  --     1.4121                 5.4430                 5.3360
 IR Inten    --     1.9874                24.3907                38.2540

                    22                     23                     24
                     A                      A                      A
 Frequencies --  2962.8693              2977.6260              3019.4069
 Red. masses --     1.0356                 1.1019                 1.1020
 Frc consts  --     5.3561                 5.7563                 5.9195
 IR Inten    --    26.1771                 7.8369                 0.0000

                    25                     26                     27
                     A                      A                      A
 Frequencies --  3027.9100              3029.8385              3030.3754
 Red. masses --     1.1019                 1.1026                 1.1006
 Frc consts  --     5.9522                 5.9636                 5.9547
 IR Inten    --    31.3713               107.7641                59.3781

 - Thermochemistry -
 -------------------
 Temperature   298.150 Kelvin.  Pressure   1.00000 Atm.
 Atom     1 has atomic number  6 and mass  12.00000

 Molecular mass:    44.06260 amu.
 Principal axes and moments of inertia in atomic units:
                           1         2         3
     Eigenvalues --    62.03423 219.17856 247.22659
           X            1.00000   0.00000   0.00000
           Y            0.00000   1.00000   0.00000
           Z            0.00000   0.00000   1.00000
 This molecule is an asymmetric top.
 Rotational symmetry number  1.
 Rotational temperatures (Kelvin)      1.39623     0.39517     0.35034
 Rotational constants (GHZ):          29.09267     8.23411     7.29995
 Zero-point vibrational energy     265188.5 (Joules/Mol)
                                   63.38157 (Kcal/Mol)
 Warning -- explicit consideration of   3 degrees of freedom as
           vibrations may cause significant error
 Vibrational temperatures:    312.85   380.97   512.14  1061.66  1216.96
          (Kelvin)           1284.48  1308.41  1474.03  1651.39  1707.35
                             1854.06  1923.29  1984.77  2011.58  2111.50
                             2112.61  2124.51  2137.94  2147.29  4248.01
                             4256.75  4262.90  4284.13  4344.25  4356.48
                             4359.26  4360.03

 Zero-point correction=                           0.101005 (Hartree/Particle)
 Thermal correction to Energy=                    0.105600
 Thermal correction to Enthalpy=                  0.106544
 Thermal correction to Gibbs Free Energy=         0.075276
 Sum of electronic and zero-point Energies=           -118.959166
 Sum of electronic and thermal Energies=              -118.954570
 Sum of electronic and thermal Enthalpies=            -118.953626
 Sum of electronic and thermal Free Energies=         -118.984895

                     E (Thermal)             CV                S
                      KCal/Mol        Cal/Mol-Kelvin    Cal/Mol-Kelvin
 Total                   66.265             15.128             65.809
 Electronic               0.000              0.000              0.000
 Translational            0.889              2.981             37.275
 Rotational               0.889              2.981             22.735
 Vibrational             64.488              9.166              5.800
 Vibration     1          0.646              1.814              1.980
 Vibration     2          0.671              1.738              1.630
 Vibration     3          0.731              1.563              1.140

 Optimization completed.
    -- Stationary point found.
 Normal termination of Gaussian 09 at Wed Jul 10 16:52:22 2019.
