 Gaussian 09, Revision C.01,
 Gaussian 09:  EM64L-G09RevC.01 23-Sep-2011

 -------------------------
 #opt freq blyp/6-31g(d,p)
 -------------------------

 99/9=1/99;
 -----------------------------------------------
 molecule_/home/mateus/github/db_singletoxygen 0
 -----------------------------------------------
 Charge =  0 Multiplicity = 1

 SCF Done:  E(RB-LYP) =  -800.856066622     A.U. after   18 cycles
 SCF Done:  E(RB-LYP) =  -800.866234451     A.U. after   14 cycles
 SCF Done:  E(RB-LYP) =  -800.868724957     A.U. after   14 cycles
 SCF Done:  E(RB-LYP) =  -800.869915266     A.U. after   16 cycles
 SCF Done:  E(RB-LYP) =  -800.870874688     A.U. after   13 cycles
 SCF Done:  E(RB-LYP) =  -800.871233064     A.U. after   13 cycles
 SCF Done:  E(RB-LYP) =  -800.871303778     A.U. after   13 cycles
 SCF Done:  E(RB-LYP) =  -800.871307730     A.U. after   12 cycles
 SCF Done:  E(RB-LYP) =  -800.871313370     A.U. after   11 cycles
 SCF Done:  E(RB-LYP) =  -800.871315534     A.U. after    9 cycles
 SCF Done:  E(RB-LYP) =  -800.871316217     A.U. after    8 cycles
 SCF Done:  E(RB-LYP) =  -800.871316553     A.U. after    9 cycles
 SCF Done:  E(RB-LYP) =  -800.871316608     A.U. after    7 cycles
 Optimization completed.
    -- Stationary point found.
 Normal termination of Gaussian 09 at Wed Aug 21 16:46:28 2019.

 ---------------------------------------------------------------------
 #N Geom=AllCheck Guess=TCheck SCRF=Check GenChk RBLYP/6-31G(d,p) Freq
 ---------------------------------------------------------------------

 Structure from the checkpoint file:  /opt/g09/Gau-26632.chk
 -----------------------------------------------
 molecule_/home/mateus/github/db_singletoxygen 0
 -----------------------------------------------
 Charge =  0 Multiplicity = 1

                         Standard orientation:
 ---------------------------------------------------------------------
 Center     Atomic      Atomic             Coordinates (Angstroms)
 Number     Number       Type             X           Y           Z
 ---------------------------------------------------------------------
      1          6           0       -4.611658   -0.659514   -0.000324
      2          6           0       -3.592043    0.470494   -0.000109
      3          8           0       -3.952433    1.653816   -0.000122
      4          6           0       -2.106890    0.156258    0.000055
      5          6           0       -1.228335    1.222433    0.000114
      6          6           0        0.192857    1.060505    0.000160
      7          6           0        1.110316    2.161652    0.000145
      8          6           0        2.489318    1.964859    0.000041
      9          6           0        2.930977    0.627525   -0.000022
     10          8           0        4.247106    0.219796   -0.000184
     11          6           0        4.219323   -1.175436   -0.000233
     12          6           0        2.943350   -1.664440   -0.000043
     13          6           0        2.078580   -0.504751    0.000011
     14          6           0        0.685614   -0.275124    0.000089
     15          8           0       -0.154763   -1.351126    0.000172
     16          6           0       -1.595166   -1.219878    0.000158
     17          8           0       -2.214761   -2.270209    0.000254
     18          1           0       -5.616767   -0.218707   -0.000279
     19          1           0       -4.476235   -1.312105    0.876121
     20          1           0       -4.476184   -1.311798   -0.876990
     21          1           0       -1.666972    2.225074    0.000053
     22          1           0        0.700893    3.174248    0.000241
     23          1           0        3.196899    2.794373    0.000028
     24          1           0        5.196172   -1.648670   -0.000376
     25          1           0        2.643554   -2.708129   -0.000004
 ---------------------------------------------------------------------

 SCF Done:  E(RB-LYP) =  -800.871316608     A.U. after    2 cycles

 The electronic state is 1-A.
 Alpha  occ. eigenvalues --  -18.88269 -18.86544 -18.79062 -18.78232 -10.05748
 Alpha  occ. eigenvalues --  -10.01943 -10.01225 -10.00720 -10.00096  -9.96766
 Alpha  occ. eigenvalues --   -9.96164  -9.95838  -9.95832  -9.95592  -9.95546
 Alpha  occ. eigenvalues --   -9.95161  -9.91847  -1.01964  -1.00546  -0.93246
 Alpha  occ. eigenvalues --   -0.92711  -0.79151  -0.75059  -0.72973  -0.69017
 Alpha  occ. eigenvalues --   -0.67333  -0.65356  -0.60288  -0.58615  -0.56307
 Alpha  occ. eigenvalues --   -0.54552  -0.50861  -0.49735  -0.47254  -0.45392
 Alpha  occ. eigenvalues --   -0.44071  -0.41959  -0.41581  -0.40337  -0.39786
 Alpha  occ. eigenvalues --   -0.38979  -0.37559  -0.37417  -0.37018  -0.36843
 Alpha  occ. eigenvalues --   -0.35641  -0.34701  -0.33561  -0.33217  -0.32307
 Alpha  occ. eigenvalues --   -0.31425  -0.30460  -0.29806  -0.26717  -0.26139
 Alpha  occ. eigenvalues --   -0.22812  -0.21140  -0.19951  -0.19586
 Alpha virt. eigenvalues --   -0.10418  -0.06098  -0.03955  -0.02001   0.00740
 Alpha virt. eigenvalues --    0.05660   0.06613   0.07678   0.08699   0.09061
 Alpha virt. eigenvalues --    0.10911   0.11142   0.12857   0.12909   0.13090

 Mulliken atomic charges:
              1
     1  C   -0.335542
     2  C    0.357716
     3  O   -0.435618
     4  C    0.022300
     5  C   -0.117880
     6  C    0.168505
     7  C   -0.139037
     8  C   -0.092561
     9  C    0.290623
    10  O   -0.441515
    11  C    0.126854
    12  C   -0.115682
    13  C    0.110054
    14  C    0.192880
    15  O   -0.486884
    16  C    0.488838
    17  O   -0.436618
    18  H    0.107557
    19  H    0.129432
    20  H    0.129418
    21  H    0.110070
    22  H    0.079823
    23  H    0.084342
    24  H    0.104086
    25  H    0.098839
 Sum of Mulliken atomic charges =   0.00000

 Dipole moment (field-independent basis, Debye):
    X=              4.2338    Y=              0.6155    Z=             -0.0004  Tot=              4.2783
 Quadrupole moment (field-independent basis, Debye-Ang):
   XX=            -93.1987   YY=            -95.9971   ZZ=            -95.0832
   XY=              0.1865   XZ=              0.0001   YZ=              0.0020

  Exact polarizability: 271.584   1.679 161.903  -0.003   0.002  56.121
 Approx polarizability: 564.113  25.315 388.226  -0.014   0.002 100.020

                     1                      2                      3
                     A                      A                      A
 Frequencies --    43.0333                50.4090                88.8276
 Red. masses --     4.2221                 6.3396                 9.4905
 Frc consts  --     0.0046                 0.0095                 0.0441
 IR Inten    --     2.6140                 1.6604                 1.5528

                     4                      5                      6
                     A                      A                      A
 Frequencies --   142.8851               162.4914               174.3092
 Red. masses --     5.7075                 1.2547                 2.9210
 Frc consts  --     0.0687                 0.0195                 0.0523
 IR Inten    --     1.4100                 2.7099                 1.9024

                     7                      8                      9
                     A                      A                      A
 Frequencies --   207.7100               232.1923               266.1754
 Red. masses --     6.9230                 8.0298                 5.4716
 Frc consts  --     0.1760                 0.2551                 0.2284
 IR Inten    --     0.0291                 3.4708                 0.5851

                    10                     11                     12
                     A                      A                      A
 Frequencies --   293.2856               312.8347               360.2353
 Red. masses --     4.7960                 5.5938                 6.1784
 Frc consts  --     0.2431                 0.3225                 0.4724
 IR Inten    --    15.6341                 2.7226                 0.1307

                    13                     14                     15
                     A                      A                      A
 Frequencies --   414.0772               418.3132               447.1749
 Red. masses --     3.6870                 6.4041                 6.9844
 Frc consts  --     0.3725                 0.6603                 0.8229
 IR Inten    --     0.0489                 3.2010                 7.0137

                    16                     17                     18
                     A                      A                      A
 Frequencies --   490.9486               520.7989               567.5164
 Red. masses --     7.1218                 4.2440                 3.0835
 Frc consts  --     1.0114                 0.6782                 0.5851
 IR Inten    --    28.6419                 1.1867                 0.8953

                    19                     20                     21
                     A                      A                      A
 Frequencies --   585.6483               591.6081               597.8337
 Red. masses --     5.6478                 4.1819                 6.9933
 Frc consts  --     1.1413                 0.8624                 1.4726
 IR Inten    --    18.6469                 2.0350                 2.0362

                    22                     23                     24
                     A                      A                      A
 Frequencies --   606.0402               640.0368               685.9672
 Red. masses --     5.1253                 4.3448                 7.3545
 Frc consts  --     1.1091                 1.0487                 2.0390
 IR Inten    --    12.5933                 1.1406                 4.0673

                    25                     26                     27
                     A                      A                      A
 Frequencies --   717.5741               725.2215               745.0764
 Red. masses --     2.9069                 4.4096                 2.1486
 Frc consts  --     0.8819                 1.3665                 0.7027
 IR Inten    --     7.2112                35.2288                15.1520

                    28                     29                     30
                     A                      A                      A
 Frequencies --   763.0188               781.7172               799.6280
 Red. masses --     6.4626                 1.4814                 8.8863
 Frc consts  --     2.2168                 0.5334                 3.3477
 IR Inten    --     8.4593                13.0621                20.4206

                    31                     32                     33
                     A                      A                      A
 Frequencies --   826.8256               845.2229               869.6685
 Red. masses --     1.2949                 6.8056                 6.5838
 Frc consts  --     0.5216                 2.8646                 2.9338
 IR Inten    --     3.0084                30.1257                 2.2077

                    34                     35                     36
                     A                      A                      A
 Frequencies --   904.2498               952.3466               962.2239
 Red. masses --     1.2516                 2.2112                 1.3934
 Frc consts  --     0.6030                 1.1816                 0.7601
 IR Inten    --     0.6409                19.6852                12.5912

                    37                     38                     39
                     A                      A                      A
 Frequencies --   985.6766              1018.3016              1021.2791
 Red. masses --     2.4692                 1.8285                 5.3011
 Frc consts  --     1.4135                 1.1171                 3.2577
 IR Inten    --    54.7323                 1.1427                42.4720

                    40                     41                     42
                     A                      A                      A
 Frequencies --  1051.1790              1074.9697              1125.8604
 Red. masses --     2.5103                 2.4081                 1.5742
 Frc consts  --     1.6343                 1.6395                 1.1756
 IR Inten    --    18.5424                24.2104                26.1379

                    43                     44                     45
                     A                      A                      A
 Frequencies --  1144.9301              1188.5362              1212.3419
 Red. masses --     1.6095                 1.9032                 3.8816
 Frc consts  --     1.2431                 1.5840                 3.3613
 IR Inten    --    17.8662               223.8696                62.1536

                    46                     47                     48
                     A                      A                      A
 Frequencies --  1234.0465              1274.1485              1331.6203
 Red. masses --     3.1077                 2.7858                 2.5441
 Frc consts  --     2.7884                 2.6646                 2.6580
 IR Inten    --   102.8366                 3.5115                16.0174

                    49                     50                     51
                     A                      A                      A
 Frequencies --  1345.9475              1362.4570              1377.4566
 Red. masses --     2.3861                 1.4044                 7.1422
 Frc consts  --     2.5468                 1.5360                 7.9843
 IR Inten    --     1.9944                35.8805                46.8564

                    52                     53                     54
                     A                      A                      A
 Frequencies --  1421.5453              1432.3790              1442.6072
 Red. masses --     1.0737                 4.0162                 1.0489
 Frc consts  --     1.2784                 4.8549                 1.2861
 IR Inten    --    31.0504                34.8234                 7.2227

                    55                     56                     57
                     A                      A                      A
 Frequencies --  1453.4171              1520.7674              1537.1749
 Red. masses --     5.1796                 4.7521                 6.7316
 Frc consts  --     6.4466                 6.4754                 9.3716
 IR Inten    --    33.2911                 2.5035               245.3003

                    58                     59                     60
                     A                      A                      A
 Frequencies --  1576.3368              1592.9742              1682.0607
 Red. masses --     7.2426                 8.0008                 9.7589
 Frc consts  --    10.6033                11.9619                16.2680
 IR Inten    --   178.9540                67.0828               109.1666

                    61                     62                     63
                     A                      A                      A
 Frequencies --  1757.8867              2986.6405              3045.9112
 Red. masses --    12.7507                 1.0346                 1.0978
 Frc consts  --    23.2148                 5.4372                 6.0007
 IR Inten    --   477.3361                 1.7194                 4.4221

                    64                     65                     66
                     A                      A                      A
 Frequencies --  3089.2513              3106.8120              3121.6700
 Red. masses --     1.1056                 1.0893                 1.0887
 Frc consts  --     6.2165                 6.1946                 6.2508
 IR Inten    --    24.1690                 0.9935                 3.1853

                    67                     68                     69
                     A                      A                      A
 Frequencies --  3149.8866              3200.1631              3222.2769
 Red. masses --     1.0941                 1.0901                 1.1056
 Frc consts  --     6.3959                 6.5772                 6.7636
 IR Inten    --     4.0069                 1.0432                 0.4282

 - Thermochemistry -
 -------------------
 Temperature   298.150 Kelvin.  Pressure   1.00000 Atm.
 Atom     1 has atomic number  6 and mass  12.00000

 Molecular mass:   228.04226 amu.
 Principal axes and moments of inertia in atomic units:
                           1         2         3
     Eigenvalues --  1473.839726493.798177956.57666
           X            0.99999   0.00330   0.00000
           Y           -0.00330   0.99999   0.00001
           Z            0.00000  -0.00001   1.00000
 This molecule is an asymmetric top.
 Rotational symmetry number  1.
 Warning -- assumption of classical behavior for rotation
           may cause significant error
 Rotational temperatures (Kelvin)      0.05877     0.01334     0.01089
 Rotational constants (GHZ):           1.22452     0.27792     0.22682
 Zero-point vibrational energy     459854.3 (Joules/Mol)
                                  109.90782 (Kcal/Mol)
 Warning -- explicit consideration of  22 degrees of freedom as
           vibrations may cause significant error
 Vibrational temperatures:     61.92    72.53   127.80   205.58   233.79
          (Kelvin)            250.79   298.85   334.07   382.97   421.97
                              450.10   518.30   595.76   601.86   643.38
                              706.36   749.31   816.53   842.62   851.19
                              860.15   871.96   920.87   986.95  1032.43
                             1043.43  1072.00  1097.81  1124.72  1150.48
                             1189.62  1216.09  1251.26  1301.01  1370.21
                             1384.42  1418.17  1465.11  1469.39  1512.41
                             1546.64  1619.86  1647.30  1710.04  1744.29
                             1775.52  1833.21  1915.90  1936.52  1960.27
                             1981.85  2045.28  2060.87  2075.59  2091.14
                             2188.04  2211.65  2267.99  2291.93  2420.11
                             2529.20  4297.10  4382.38  4444.74  4470.00
                             4491.38  4531.98  4604.32  4636.13

 Zero-point correction=                           0.175149 (Hartree/Particle)
 Thermal correction to Energy=                    0.188635
 Thermal correction to Enthalpy=                  0.189579
 Thermal correction to Gibbs Free Energy=         0.134554
 Sum of electronic and zero-point Energies=           -800.696167
 Sum of electronic and thermal Energies=              -800.682682
 Sum of electronic and thermal Enthalpies=            -800.681738
 Sum of electronic and thermal Free Energies=         -800.736762

                     E (Thermal)             CV                S
                      KCal/Mol        Cal/Mol-Kelvin    Cal/Mol-Kelvin
 Total                  118.370             53.197            115.809
 Electronic               0.000              0.000              0.000
 Translational            0.889              2.981             42.175
 Rotational               0.889              2.981             32.699
 Vibrational            116.593             47.236             40.935
 Vibration     1          0.595              1.980              5.114
 Vibration     2          0.595              1.977              4.801
 Vibration     3          0.602              1.957              3.686
 Vibration     4          0.616              1.910              2.765
 Vibration     5          0.623              1.888              2.521
 Vibration     6          0.627              1.874              2.389
 Vibration     7          0.641              1.829              2.064
 Vibration     8          0.653              1.792              1.862
 Vibration     9          0.672              1.735              1.621
 Vibration    10          0.688              1.686              1.455
 Vibration    11          0.701              1.649              1.347
 Vibration    12          0.735              1.554              1.121
 Vibration    13          0.778              1.440              0.912
 Vibration    14          0.781              1.430              0.898
 Vibration    15          0.806              1.367              0.804
 Vibration    16          0.847              1.270              0.681
 Vibration    17          0.876              1.204              0.608
 Vibration    18          0.923              1.102              0.509
 Vibration    19          0.943              1.062              0.475
 Vibration    20          0.949              1.050              0.464
 Vibration    21          0.956              1.036              0.453
 Vibration    22          0.965              1.019              0.439

 Optimization completed.
    -- Stationary point found.
 Normal termination of Gaussian 09 at Wed Aug 21 16:49:37 2019.
