 Gaussian 09, Revision D.01,
 Gaussian 09:  ES64L-G09RevD.01 24-Apr-2013

 ------------------------
 #opt freq b3lyp/6-31g(d)
 ------------------------

 --------------
 molecule_2 C#C
 --------------
 Symbolic Z-matrix:
 Charge =  0 Multiplicity = 1

 SCF Done:  E(RB3LYP) =  -77.3256007237     A.U. after   10 cycles
 SCF Done:  E(RB3LYP) =  -77.3256457625     A.U. after    7 cycles
 SCF Done:  E(RB3LYP) =  -77.3256461806     A.U. after    6 cycles
 Optimization completed.
    -- Stationary point found.
 Normal termination of Gaussian 09 at Tue Oct  1 16:16:53 2019.

 --------------------------------------------------------------------
 #N Geom=AllCheck Guess=TCheck SCRF=Check GenChk RB3LYP/6-31G(d) Freq
 --------------------------------------------------------------------

 Structure from the checkpoint file:  "/home/mateus/github/db_singletoxygen/chk/molecule_2.chk"
 --------------
 molecule_2 C#C
 --------------
 Charge =  0 Multiplicity = 1

                         Standard orientation:
 ---------------------------------------------------------------------
 Center     Atomic      Atomic             Coordinates (Angstroms)
 Number     Number       Type             X           Y           Z
 ---------------------------------------------------------------------
      1          6           0        0.000000    0.000000    0.602484
      2          6           0        0.000000    0.000000   -0.602484
      3          1           0        0.000000    0.000000    1.669129
      4          1           0        0.000000    0.000000   -1.669129
 ---------------------------------------------------------------------

 SCF Done:  E(RB3LYP) =  -77.3256461806     A.U. after    1 cycles

 The electronic state is 1-SG.
 Alpha  occ. eigenvalues --  -10.19217 -10.18976  -0.74262  -0.56539  -0.49158
 Alpha  occ. eigenvalues --   -0.28193  -0.28193
 Alpha virt. eigenvalues --    0.05243   0.05243   0.10558   0.14883   0.42673
 Alpha virt. eigenvalues --    0.47082   0.53292   0.53292   0.65425   0.65425
 Alpha virt. eigenvalues --    0.74675   0.82440   1.02846   1.21767   1.50514

 Mulliken charges:
               1
     1  C   -0.188312
     2  C   -0.188312
     3  H    0.188312
     4  H    0.188312
 Sum of Mulliken charges =   0.00000

 Dipole moment (field-independent basis, Debye):
    X=              0.0000    Y=              0.0000    Z=              0.0000  Tot=              0.0000
 Quadrupole moment (field-independent basis, Debye-Ang):
   XX=            -13.0251   YY=            -13.0251   ZZ=             -6.7619
   XY=              0.0000   XZ=              0.0000   YZ=              0.0000

  Exact polarizability:   7.863   0.000   7.863   0.000   0.000  27.848
 Approx polarizability:   9.711   0.000   9.711   0.000   0.000  50.810

                      1                      2                      3
                     PI                     PI                     PI
 Frequencies --    534.8903               534.8903               775.2268
 Red. masses --      1.5724                 1.5724                 1.0848
 Frc consts  --      0.2651                 0.2651                 0.3841
 IR Inten    --      0.0000                 0.0000                81.0596

                      4                      5                      6
                     PI                     SG                     SG
 Frequencies --    775.2268              2088.1579              3441.5560
 Red. masses --      1.0848                 3.8255                 1.0848
 Frc consts  --      0.3841                 9.8279                 7.5703
 IR Inten    --     81.0596                 0.0000                76.4826

                      7
                     SG
 Frequencies --   3541.7315
 Red. masses --      1.2283
 Frc consts  --      9.0776
 IR Inten    --      0.0000

 - Thermochemistry -
 -------------------
 Temperature   298.150 Kelvin.  Pressure   1.00000 Atm.
 Atom     1 has atomic number  6 and mass  12.00000

 Molecular mass:    26.01565 amu.
 Principal axes and moments of inertia in atomic units:
                           1         2         3
     Eigenvalues --     0.00000  51.16357  51.16357
           X            0.00000   0.00000   1.00000
           Y            0.00000   1.00000   0.00000
           Z            1.00000   0.00000   0.00000
 This molecule is a prolate symmetric top.
 Rotational symmetry number  1.
 Rotational temperature (Kelvin)      1.69288
 Rotational constant (GHZ):          35.273950
 Zero-point vibrational energy      69931.8 (Joules/Mol)
                                   16.71409 (Kcal/Mol)
 Warning -- explicit consideration of   2 degrees of freedom as
           vibrations may cause significant error
 Vibrational temperatures:    769.59   769.59  1115.38  1115.38  3004.39
          (Kelvin)           4951.63  5095.76

 Zero-point correction=                           0.026636 (Hartree/Particle)
 Thermal correction to Energy=                    0.029567
 Thermal correction to Enthalpy=                  0.030511
 Thermal correction to Gibbs Free Energy=         0.006955
 Sum of electronic and zero-point Energies=            -77.299011
 Sum of electronic and thermal Energies=               -77.296079
 Sum of electronic and thermal Enthalpies=             -77.295135
 Sum of electronic and thermal Free Energies=          -77.318691

                     E (Thermal)             CV                S
                      KCal/Mol        Cal/Mol-Kelvin    Cal/Mol-Kelvin
 Total                   18.554              8.707             49.578
 Electronic               0.000              0.000              0.000
 Translational            0.889              2.981             35.704
 Rotational               0.592              1.987             12.263
 Vibrational             17.073              3.739              1.611
 Vibration     1          0.890              1.173              0.576
 Vibration     2          0.890              1.173              0.576

 Optimization completed.
    -- Stationary point found.
 Normal termination of Gaussian 09 at Tue Oct  1 16:16:54 2019.
