 Gaussian 09, Revision D.01,
 Gaussian 09:  ES64L-G09RevD.01 24-Apr-2013

 ------------------------
 #opt freq b3lyp/6-31g(d)
 ------------------------

 ---------------
 molecule_1 CCCC
 ---------------
 Symbolic Z-matrix:
 Charge =  0 Multiplicity = 1

 SCF Done:  E(RB3LYP) =  -158.457067055     A.U. after   11 cycles
 SCF Done:  E(RB3LYP) =  -158.457961856     A.U. after   10 cycles
 SCF Done:  E(RB3LYP) =  -158.458040620     A.U. after    9 cycles
 Optimization completed.
    -- Stationary point found.
 Normal termination of Gaussian 09 at Tue Oct  1 16:16:43 2019.

 --------------------------------------------------------------------
 #N Geom=AllCheck Guess=TCheck SCRF=Check GenChk RB3LYP/6-31G(d) Freq
 --------------------------------------------------------------------

 Structure from the checkpoint file:  "/home/mateus/github/db_singletoxygen/chk/molecule_1.chk"
 ---------------
 molecule_1 CCCC
 ---------------
 Charge =  0 Multiplicity = 1

                         Standard orientation:
 ---------------------------------------------------------------------
 Center     Atomic      Atomic             Coordinates (Angstroms)
 Number     Number       Type             X           Y           Z
 ---------------------------------------------------------------------
      1          6           0       -1.962893   -0.121180    0.000000
      2          6           0       -0.568467    0.515309    0.000000
      3          6           0        0.568467   -0.515310    0.000000
      4          6           0        1.962893    0.121180    0.000000
      5          1           0       -2.751288    0.640341   -0.000002
      6          1           0       -2.110198   -0.752599    0.884927
      7          1           0       -2.110197   -0.752601   -0.884925
      8          1           0       -0.464078    1.167980    0.878514
      9          1           0       -0.464078    1.167980   -0.878514
     10          1           0        0.464078   -1.167979   -0.878515
     11          1           0        0.464078   -1.167979    0.878514
     12          1           0        2.110198    0.752599   -0.884926
     13          1           0        2.751288   -0.640341    0.000001
     14          1           0        2.110197    0.752601    0.884925
 ---------------------------------------------------------------------

 SCF Done:  E(RB3LYP) =  -158.458040620     A.U. after    1 cycles

 The electronic state is 1-A.
 Alpha  occ. eigenvalues --  -10.17607 -10.17586 -10.17004 -10.17004  -0.78691
 Alpha  occ. eigenvalues --   -0.71794  -0.62572  -0.57145  -0.46279  -0.42066
 Alpha  occ. eigenvalues --   -0.41304  -0.40637  -0.36424  -0.34710  -0.32836
 Alpha  occ. eigenvalues --   -0.31942  -0.31749
 Alpha virt. eigenvalues --    0.09487   0.12072   0.13591   0.14586   0.17076
 Alpha virt. eigenvalues --    0.18376   0.18472   0.18757   0.19853   0.19885
 Alpha virt. eigenvalues --    0.24658   0.25675   0.26253   0.49743   0.50483

 Mulliken charges:
               1
     1  C   -0.441335
     2  C   -0.239952
     3  C   -0.239951
     4  C   -0.441335
     5  H    0.141054
     6  H    0.140875
     7  H    0.140875
     8  H    0.129241
     9  H    0.129241
    10  H    0.129241
    11  H    0.129241
    12  H    0.140875
    13  H    0.141054
    14  H    0.140875
 Sum of Mulliken charges =   0.00000

 Dipole moment (field-independent basis, Debye):
    X=              0.0000    Y=              0.0000    Z=              0.0000  Tot=              0.0000
 Quadrupole moment (field-independent basis, Debye-Ang):
   XX=            -28.7871   YY=            -28.2372   ZZ=            -27.7398
   XY=             -0.2509   XZ=              0.0000   YZ=              0.0000

  Exact polarizability:  49.768  -0.216  41.714   0.000   0.000  40.827
 Approx polarizability:  55.959  -0.467  56.491   0.000   0.000  57.488

                      1                      2                      3
                      A                      A                      A
 Frequencies --    122.2368               233.7165               261.3093
 Red. masses --      1.9119                 1.0621                 2.2584
 Frc consts  --      0.0168                 0.0342                 0.0909
 IR Inten    --      0.0056                 0.0014                 0.0579

                      4                      5                      6
                      A                      A                      A
 Frequencies --    268.8303               425.4579               740.9932
 Red. masses --      1.1217                 2.7525                 1.0712
 Frc consts  --      0.0478                 0.2936                 0.3465
 IR Inten    --      0.0000                 0.0000                 3.6023

                      7                      8                      9
                      A                      A                      A
 Frequencies --    819.3863               848.1474               971.6733
 Red. masses --      1.1264                 1.9868                 1.1186
 Frc consts  --      0.4456                 0.8421                 0.6222
 IR Inten    --      0.0000                 0.0000                 1.1550

                     10                     11                     12
                      A                      A                      A
 Frequencies --    988.6285              1025.5926              1070.7097
 Red. masses --      1.3766                 2.5919                 2.3979
 Frc consts  --      0.7927                 1.6063                 1.6196
 IR Inten    --      5.4840                 0.5626                 0.0000

                     13                     14                     15
                      A                      A                      A
 Frequencies --   1180.9024              1224.7566              1306.1560
 Red. masses --      2.0136                 1.7481                 1.2446
 Frc consts  --      1.6544                 1.5450                 1.2510
 IR Inten    --      0.0000                 0.0000                 0.0991

                     16                     17                     18
                      A                      A                      A
 Frequencies --   1338.8054              1346.7320              1415.9869
 Red. masses --      1.3472                 1.0687                 1.5508
 Frc consts  --      1.4227                 1.1421                 1.8320
 IR Inten    --      6.2790                 0.0000                 0.0000

                     19                     20                     21
                      A                      A                      A
 Frequencies --   1439.4774              1442.1676              1514.7478
 Red. masses --      1.2406                 1.2441                 1.0654
 Frc consts  --      1.5145                 1.5246                 1.4403
 IR Inten    --      0.0000                 2.6345                 0.0000

                     22                     23                     24
                      A                      A                      A
 Frequencies --   1520.5632              1530.5324              1531.5560
 Red. masses --      1.0554                 1.0449                 1.0375
 Frc consts  --      1.4377                 1.4421                 1.4339
 IR Inten    --      1.3972                 0.0000                11.4796

                     25                     26                     27
                      A                      A                      A
 Frequencies --   1536.1811              1541.8159              3020.6163
 Red. masses --      1.0621                 1.0825                 1.0585
 Frc consts  --      1.4767                 1.5161                 5.6903
 IR Inten    --      0.0000                 4.7597                 0.0000

                     28                     29                     30
                      A                      A                      A
 Frequencies --   3027.9071              3041.2515              3042.0036
 Red. masses --      1.0595                 1.0360                 1.0361
 Frc consts  --      5.7234                 5.6458                 5.6489
 IR Inten    --     51.1566                77.4908                 0.0000

                     31                     32                     33
                      A                      A                      A
 Frequencies --   3042.8056              3065.2713              3104.6699
 Red. masses --      1.1015                 1.1049                 1.1031
 Frc consts  --      6.0086                 6.1168                 6.2646
 IR Inten    --      0.0000                27.9567                 0.0000

                     34                     35                     36
                      A                      A                      A
 Frequencies --   3108.5372              3110.0459              3110.8311
 Red. masses --      1.1027                 1.1021                 1.1017
 Frc consts  --      6.2781                 6.2807                 6.2817
 IR Inten    --    122.1176                 0.0000                85.8274

 - Thermochemistry -
 -------------------
 Temperature   298.150 Kelvin.  Pressure   1.00000 Atm.
 Atom     1 has atomic number  6 and mass  12.00000

 Molecular mass:    58.07825 amu.
 Principal axes and moments of inertia in atomic units:
                           1         2         3
     Eigenvalues --    77.13254 502.00358 534.36788
           X            0.99998   0.00551   0.00000
           Y           -0.00551   0.99998   0.00000
           Z            0.00000   0.00000   1.00000
 This molecule is an asymmetric top.
 Rotational symmetry number  1.
 Rotational temperatures (Kelvin)      1.12292     0.17254     0.16209
 Rotational constants (GHZ):          23.39792     3.59508     3.37734
 Zero-point vibrational energy     348837.1 (Joules/Mol)
                                   83.37406 (Kcal/Mol)
 Warning -- explicit consideration of   5 degrees of freedom as
           vibrations may cause significant error
 Vibrational temperatures:    175.87   336.27   375.97   386.79   612.14
          (Kelvin)           1066.12  1178.91  1220.29  1398.02  1422.41
                             1475.60  1540.51  1699.05  1762.15  1879.26
                             1926.24  1937.64  2037.29  2071.08  2074.95
                             2179.38  2187.75  2202.09  2203.56  2210.22
                             2218.33  4345.99  4356.48  4375.68  4376.76
                             4377.91  4410.24  4466.92  4472.49  4474.66
                             4475.79

 Zero-point correction=                           0.132865 (Hartree/Particle)
 Thermal correction to Energy=                    0.138602
 Thermal correction to Enthalpy=                  0.139547
 Thermal correction to Gibbs Free Energy=         0.104895
 Sum of electronic and zero-point Energies=           -158.325176
 Sum of electronic and thermal Energies=              -158.319438
 Sum of electronic and thermal Enthalpies=            -158.318494
 Sum of electronic and thermal Free Energies=         -158.353145

                     E (Thermal)             CV                S
                      KCal/Mol        Cal/Mol-Kelvin    Cal/Mol-Kelvin
 Total                   86.974             19.473             72.930
 Electronic               0.000              0.000              0.000
 Translational            0.889              2.981             38.098
 Rotational               0.889              2.981             24.540
 Vibrational             85.197             13.511             10.291
 Vibration     1          0.610              1.931              3.065
 Vibration     2          0.654              1.789              1.850
 Vibration     3          0.669              1.744              1.653
 Vibration     4          0.673              1.730              1.604
 Vibration     5          0.787              1.415              0.874

 Optimization completed.
    -- Stationary point found.
 Normal termination of Gaussian 09 at Tue Oct  1 16:16:51 2019.
