 Gaussian 09, Revision C.01,
 Gaussian 09:  EM64L-G09RevC.01 23-Sep-2011

 -------------------------
 #opt freq blyp/6-31g(d,p)
 -------------------------

 99/9=1/99;
 -----------------------------------------------
 molecule_/home/mateus/github/db_singletoxygen 1
 -----------------------------------------------
 Charge =  0 Multiplicity = 1

 SCF Done:  E(RB-LYP) =  -648.254364990     A.U. after   18 cycles
 SCF Done:  E(RB-LYP) =  -648.264081584     A.U. after   14 cycles
 SCF Done:  E(RB-LYP) =  -648.265001598     A.U. after   13 cycles
 SCF Done:  E(RB-LYP) =  -648.265279645     A.U. after   11 cycles
 SCF Done:  E(RB-LYP) =  -648.265334460     A.U. after   10 cycles
 SCF Done:  E(RB-LYP) =  -648.265334313     A.U. after   10 cycles
 SCF Done:  E(RB-LYP) =  -648.265345589     A.U. after    9 cycles
 Optimization completed.
    -- Stationary point found.
 Normal termination of Gaussian 09 at Wed Aug 21 16:52:10 2019.

 ---------------------------------------------------------------------
 #N Geom=AllCheck Guess=TCheck SCRF=Check GenChk RBLYP/6-31G(d,p) Freq
 ---------------------------------------------------------------------

 Structure from the checkpoint file:  /opt/g09/Gau-28091.chk
 -----------------------------------------------
 molecule_/home/mateus/github/db_singletoxygen 1
 -----------------------------------------------
 Charge =  0 Multiplicity = 1

                         Standard orientation:
 ---------------------------------------------------------------------
 Center     Atomic      Atomic             Coordinates (Angstroms)
 Number     Number       Type             X           Y           Z
 ---------------------------------------------------------------------
      1          6           0       -0.439136    2.213413    0.000005
      2          6           0       -1.784162    1.841607   -0.000018
      3          6           0       -2.049532    0.460720   -0.000015
      4          6           0       -1.055212   -0.548100   -0.000007
      5          6           0       -1.759188   -1.811933   -0.000087
      6          6           0       -3.088917   -1.496629    0.000113
      7          8           0       -3.302943   -0.118221   -0.000022
      8          6           0        0.297469   -0.141548   -0.000002
      9          6           0        0.612141    1.244944    0.000007
     10          6           0        2.012975    1.593726    0.000015
     11          6           0        2.986647    0.633394    0.000005
     12          6           0        2.671428   -0.791643   -0.000023
     13          8           0        3.450787   -1.728547    0.000024
     14          8           0        1.266181   -1.111481   -0.000009
     15          1           0       -0.167575    3.271849    0.000009
     16          1           0       -2.591041    2.574926   -0.000023
     17          1           0       -1.323237   -2.806512   -0.000165
     18          1           0       -3.993946   -2.096039    0.000202
     19          1           0        2.288094    2.653048    0.000036
     20          1           0        4.048419    0.881023    0.000031
 ---------------------------------------------------------------------

 SCF Done:  E(RB-LYP) =  -648.265345589     A.U. after    1 cycles

 The electronic state is 1-A.
 Alpha  occ. eigenvalues --  -18.87388 -18.85569 -18.77883 -10.04577 -10.00892
 Alpha  occ. eigenvalues --   -9.99731  -9.99323  -9.96312  -9.95385  -9.95039
 Alpha  occ. eigenvalues --   -9.94951  -9.94739  -9.94708  -9.94358  -1.01043
 Alpha  occ. eigenvalues --   -0.99467  -0.91998  -0.78321  -0.74135  -0.72072
 Alpha  occ. eigenvalues --   -0.67616  -0.66428  -0.59424  -0.57820  -0.55254
 Alpha  occ. eigenvalues --   -0.53830  -0.49131  -0.47820  -0.45203  -0.43446
 Alpha  occ. eigenvalues --   -0.41870  -0.40946  -0.39478  -0.39191  -0.37872
 Alpha  occ. eigenvalues --   -0.36695  -0.36404  -0.35211  -0.34080  -0.32655
 Alpha  occ. eigenvalues --   -0.31949  -0.29945  -0.29471  -0.26402  -0.25295
 Alpha  occ. eigenvalues --   -0.21765  -0.20351  -0.19037
 Alpha virt. eigenvalues --   -0.08232  -0.05187  -0.01847   0.01446   0.05816
 Alpha virt. eigenvalues --    0.05964   0.07010   0.09276   0.09638   0.10860
 Alpha virt. eigenvalues --    0.12397   0.13691   0.13866   0.14301   0.16412

 Mulliken atomic charges:
              1
     1  C   -0.146256
     2  C   -0.091286
     3  C    0.285041
     4  C    0.111519
     5  C   -0.117834
     6  C    0.125931
     7  O   -0.444917
     8  C    0.185662
     9  C    0.159108
    10  C   -0.070037
    11  C   -0.115301
    12  C    0.527139
    13  O   -0.437475
    14  O   -0.484432
    15  H    0.068908
    16  H    0.078699
    17  H    0.095791
    18  H    0.099937
    19  H    0.080077
    20  H    0.089727
 Sum of Mulliken atomic charges =   0.00000

 Dipole moment (field-independent basis, Debye):
    X=             -2.6838    Y=              2.8063    Z=              0.0000  Tot=              3.8830
 Quadrupole moment (field-independent basis, Debye-Ang):
   XX=            -80.0137   YY=            -71.9479   ZZ=            -79.4946
   XY=             13.9854   XZ=             -0.0007   YZ=              0.0001

  Exact polarizability: 199.395   1.758 142.249  -0.001   0.000  41.810
 Approx polarizability: 458.406 -34.120 325.794  -0.005  -0.001  73.748

                     1                      2                      3
                     A                      A                      A
 Frequencies --    89.8481               110.8313               197.6380
 Red. masses --     8.0178                 5.2826                 7.0769
 Frc consts  --     0.0381                 0.0382                 0.1629
 IR Inten    --     2.2981                 2.6539                 1.5512

                     4                      5                      6
                     A                      A                      A
 Frequencies --   201.0433               256.9441               288.6634
 Red. masses --     6.1006                 5.9391                 4.4916
 Frc consts  --     0.1453                 0.2310                 0.2205
 IR Inten    --     0.6318                 0.0387                 2.9038

                     7                      8                      9
                     A                      A                      A
 Frequencies --   391.4630               407.0274               408.2851
 Red. masses --     7.7859                 3.6635                 9.2989
 Frc consts  --     0.7030                 0.3576                 0.9133
 IR Inten    --     0.3984                 0.0000                 4.9189

                    10                     11                     12
                     A                      A                      A
 Frequencies --   456.2308               519.9947               527.0052
 Red. masses --     7.1931                 4.2471                 4.9375
 Frc consts  --     0.8821                 0.6766                 0.8080
 IR Inten    --    15.3400                 1.1649                 9.4300

                    13                     14                     15
                     A                      A                      A
 Frequencies --   583.4475               590.4171               624.6093
 Red. masses --     4.0138                 7.1150                 4.3696
 Frc consts  --     0.8050                 1.4613                 1.0044
 IR Inten    --     3.6537                 2.3525                 0.6368

                    16                     17                     18
                     A                      A                      A
 Frequencies --   665.9048               683.2791               714.7381
 Red. masses --     7.7934                 3.3589                 7.8388
 Frc consts  --     2.0361                 0.9239                 2.3593
 IR Inten    --     4.4005                 1.5398                 2.6340

                    19                     20                     21
                     A                      A                      A
 Frequencies --   722.1956               744.8507               765.2744
 Red. masses --     2.0148                 2.4761                 7.9308
 Frc consts  --     0.6191                 0.8094                 2.7366
 IR Inten    --    44.4575                 6.3390                54.6238

                    22                     23                     24
                     A                      A                      A
 Frequencies --   773.9757               818.1034               821.8626
 Red. masses --     1.5706                 1.6105                 6.2452
 Frc consts  --     0.5543                 0.6351                 2.4854
 IR Inten    --     0.7184                36.3396                 0.9416

                    25                     26                     27
                     A                      A                      A
 Frequencies --   825.4426               869.6948               898.5479
 Red. masses --     1.3133                 6.6859                 1.2526
 Frc consts  --     0.5272                 2.9795                 0.5959
 IR Inten    --    11.1094                 2.9901                 0.0240

                    28                     29                     30
                     A                      A                      A
 Frequencies --   964.6777               979.0087              1014.6134
 Red. masses --     1.2865                 2.7712                 4.5543
 Frc consts  --     0.7054                 1.5649                 2.7623
 IR Inten    --     0.6873                44.3854                39.8961

                    31                     32                     33
                     A                      A                      A
 Frequencies --  1044.5849              1063.0874              1125.3593
 Red. masses --     2.7487                 3.5129                 1.5321
 Frc consts  --     1.7671                 2.3391                 1.1432
 IR Inten    --    32.4590                50.0517                15.5894

                    34                     35                     36
                     A                      A                      A
 Frequencies --  1138.8622              1156.9389              1217.8418
 Red. masses --     1.4062                 1.5435                 1.6835
 Frc consts  --     1.0746                 1.2173                 1.4711
 IR Inten    --     6.3566                 5.4453                 1.5253

                    37                     38                     39
                     A                      A                      A
 Frequencies --  1236.0423              1259.8906              1330.2022
 Red. masses --     3.3603                 2.8921                 2.4202
 Frc consts  --     3.0248                 2.7047                 2.5232
 IR Inten    --    23.5847                53.7754                22.8974

                    40                     41                     42
                     A                      A                      A
 Frequencies --  1370.3512              1395.7592              1433.6705
 Red. masses --     6.2278                 1.9917                 4.2236
 Frc consts  --     6.8905                 2.2861                 5.1149
 IR Inten    --    16.2777                 8.8086                 9.4245

                    43                     44                     45
                     A                      A                      A
 Frequencies --  1453.7674              1523.5988              1555.1879
 Red. masses --     4.5485                 4.6826                 6.9639
 Frc consts  --     5.6638                 6.4043                 9.9235
 IR Inten    --    14.5669                 8.5468                20.3837

                    46                     47                     48
                     A                      A                      A
 Frequencies --  1591.0216              1606.9722              1769.6315
 Red. masses --     7.6861                 6.8349                12.2507
 Frc consts  --    11.4633                10.3992                22.6035
 IR Inten    --   150.9674                16.9160               507.2476

                    49                     50                     51
                     A                      A                      A
 Frequencies --  3096.5613              3113.7983              3148.2921
 Red. masses --     1.0894                 1.0886                 1.0937
 Frc consts  --     6.1547                 6.2185                 6.3870
 IR Inten    --    12.3555                 7.7057                 4.9051

                    52                     53                     54
                     A                      A                      A
 Frequencies --  3149.9455              3199.4575              3220.5643
 Red. masses --     1.0932                 1.0896                 1.1059
 Frc consts  --     6.3908                 6.5713                 6.7580
 IR Inten    --     2.5678                 0.6579                 0.7373

 - Thermochemistry -
 -------------------
 Temperature   298.150 Kelvin.  Pressure   1.00000 Atm.
 Atom     1 has atomic number  6 and mass  12.00000

 Molecular mass:   186.03169 amu.
 Principal axes and moments of inertia in atomic units:
                           1         2         3
     Eigenvalues --  1209.201453357.291414566.49286
           X            0.99972   0.02380   0.00000
           Y           -0.02380   0.99972   0.00000
           Z            0.00000   0.00000   1.00000
 This molecule is an asymmetric top.
 Rotational symmetry number  1.
 Warning -- assumption of classical behavior for rotation
           may cause significant error
 Rotational temperatures (Kelvin)      0.07163     0.02580     0.01897
 Rotational constants (GHZ):           1.49251     0.53756     0.39521
 Zero-point vibrational energy     365560.9 (Joules/Mol)
                                   87.37115 (Kcal/Mol)
 Warning -- explicit consideration of  14 degrees of freedom as
           vibrations may cause significant error
 Vibrational temperatures:    129.27   159.46   284.36   289.26   369.68
          (Kelvin)            415.32   563.23   585.62   587.43   656.41
                              748.16   758.24   839.45   849.48   898.67
                              958.09   983.09  1028.35  1039.08  1071.67
                             1101.06  1113.58  1177.07  1182.48  1187.63
                             1251.30  1292.81  1387.95  1408.57  1459.80
                             1502.92  1529.54  1619.14  1638.57  1664.57
                             1752.20  1778.39  1812.70  1913.86  1971.63
                             2008.18  2062.73  2091.64  2192.12  2237.57
                             2289.12  2312.07  2546.10  4455.26  4480.06
                             4529.68  4532.06  4603.30  4633.67

 Zero-point correction=                           0.139235 (Hartree/Particle)
 Thermal correction to Energy=                    0.149046
 Thermal correction to Enthalpy=                  0.149990
 Thermal correction to Gibbs Free Energy=         0.103851
 Sum of electronic and zero-point Energies=           -648.126111
 Sum of electronic and thermal Energies=              -648.116299
 Sum of electronic and thermal Enthalpies=            -648.115355
 Sum of electronic and thermal Free Energies=         -648.161494

                     E (Thermal)             CV                S
                      KCal/Mol        Cal/Mol-Kelvin    Cal/Mol-Kelvin
 Total                   93.528             40.528             97.108
 Electronic               0.000              0.000              0.000
 Translational            0.889              2.981             41.568
 Rotational               0.889              2.981             31.295
 Vibrational             91.750             34.566             24.244
 Vibration     1          0.602              1.956              3.663
 Vibration     2          0.607              1.941              3.254
 Vibration     3          0.637              1.843              2.155
 Vibration     4          0.638              1.838              2.124
 Vibration     5          0.667              1.751              1.682
 Vibration     6          0.685              1.695              1.482
 Vibration     7          0.759              1.488              0.995
 Vibration     8          0.772              1.455              0.937
 Vibration     9          0.773              1.452              0.933
 Vibration    10          0.814              1.347              0.777
 Vibration    11          0.875              1.206              0.610
 Vibration    12          0.882              1.190              0.594
 Vibration    13          0.940              1.067              0.479
 Vibration    14          0.948              1.052              0.466

 Optimization completed.
    -- Stationary point found.
 Normal termination of Gaussian 09 at Wed Aug 21 16:54:00 2019.
