 Gaussian 09, Revision C.01,
 Gaussian 09:  EM64L-G09RevC.01 23-Sep-2011

 --------------
 #hf/6-31g(d,p)
 --------------

 99/5=1,9=1/99;
 ------------------------------------
 molecule_~/github/db_singletoxygen 0
 ------------------------------------
 Charge =  0 Multiplicity = 1

                         Standard orientation:
 ---------------------------------------------------------------------
 Center     Atomic      Atomic             Coordinates (Angstroms)
 Number     Number       Type             X           Y           Z
 ---------------------------------------------------------------------
      1          6           0       -1.940803   -0.085331    0.000000
      2          6           0       -0.533873    0.411910   -0.000002
      3          6           0        0.530713   -0.404624    0.000001
      4          6           0        1.943105    0.079417    0.000000
      5          1           0       -2.634807    0.761176   -0.000004
      6          1           0       -2.141842   -0.684133    0.893460
      7          1           0       -2.141839   -0.684142   -0.893452
      8          1           0       -0.391317    1.490047    0.000001
      9          1           0        0.384043   -1.482739   -0.000001
     10          1           0        2.002063    1.172446    0.000001
     11          1           0        2.464421   -0.290446   -0.887919
     12          1           0        2.464421   -0.290444    0.887919
 ---------------------------------------------------------------------

 SCF Done:  E(RHF) =  -156.118210049     A.U. after   11 cycles

 The electronic state is 1-A.
 Alpha  occ. eigenvalues --  -11.22080 -11.21910 -11.21629 -11.21481  -1.07289
 Alpha  occ. eigenvalues --   -0.98163  -0.87011  -0.74010  -0.60374  -0.59836
 Alpha  occ. eigenvalues --   -0.57163  -0.55409  -0.51894  -0.49733  -0.47784
 Alpha  occ. eigenvalues --   -0.33243
 Alpha virt. eigenvalues --    0.18368   0.26112   0.26350   0.27294   0.30837
 Alpha virt. eigenvalues --    0.32711   0.33232   0.35408   0.37011   0.43294
 Alpha virt. eigenvalues --    0.46643   0.55982   0.69328   0.72726   0.75808

 Mulliken atomic charges:
              1
     1  C   -0.353716
     2  C   -0.149797
     3  C   -0.111964
     4  C   -0.350688
     5  H    0.114377
     6  H    0.127792
     7  H    0.127793
     8  H    0.123550
     9  H    0.119153
    10  H    0.117542
    11  H    0.117980
    12  H    0.117979
 Sum of Mulliken atomic charges =   0.00000

 Dipole moment (field-independent basis, Debye):
    X=             -0.0253    Y=             -0.0508    Z=              0.0000  Tot=              0.0568
 Quadrupole moment (field-independent basis, Debye-Ang):
   XX=            -26.1353   YY=            -25.3893   ZZ=            -28.0257
   XY=             -0.3476   XZ=              0.0000   YZ=              0.0000

 Normal termination of Gaussian 09 at Wed Jul 10 10:54:29 2019.
