 Gaussian 09, Revision C.01,
 Gaussian 09:  EM64L-G09RevC.01 23-Sep-2011

 --------------
 #hf/6-31g(d,p)
 --------------

 99/5=1,9=1/99;
 ------------------------------------
 molecule_~/github/db_singletoxygen 1
 ------------------------------------
 Charge =  0 Multiplicity = 1

                         Standard orientation:
 ---------------------------------------------------------------------
 Center     Atomic      Atomic             Coordinates (Angstroms)
 Number     Number       Type             X           Y           Z
 ---------------------------------------------------------------------
      1          6           0        1.929402    0.125474    0.000000
      2          6           0        0.555281   -0.524176    0.000000
      3          6           0       -0.555278    0.524171   -0.000001
      4          6           0       -1.929403   -0.125470    0.000000
      5          1           0        2.711185   -0.640550   -0.000005
      6          1           0        2.066323    0.751567    0.887314
      7          1           0        2.066320    0.751581   -0.887308
      8          1           0        0.460516   -1.167678    0.882341
      9          1           0        0.460517   -1.167674   -0.882341
     10          1           0       -0.460517    1.167682   -0.882341
     11          1           0       -0.460518    1.167677    0.882351
     12          1           0       -2.066320   -0.751572   -0.887315
     13          1           0       -2.711195    0.640550    0.000004
     14          1           0       -2.066321   -0.751577    0.887307
 ---------------------------------------------------------------------

 SCF Done:  E(RHF) =  -157.312809895     A.U. after   10 cycles

 The electronic state is 1-A.
 Alpha  occ. eigenvalues --  -11.21503 -11.21443 -11.20946 -11.20946  -1.07180
 Alpha  occ. eigenvalues --   -0.98036  -0.85574  -0.78607  -0.63899  -0.58453
 Alpha  occ. eigenvalues --   -0.57159  -0.56684  -0.51221  -0.49211  -0.46920
 Alpha  occ. eigenvalues --   -0.46161  -0.44977
 Alpha virt. eigenvalues --    0.23127   0.26080   0.28035   0.29077   0.31914
 Alpha virt. eigenvalues --    0.33732   0.33868   0.33926   0.35104   0.35270
 Alpha virt. eigenvalues --    0.42245   0.42394   0.44227   0.69787   0.70295

 Mulliken atomic charges:
              1
     1  C   -0.329918
     2  C   -0.208014
     3  C   -0.208014
     4  C   -0.329917
     5  H    0.108775
     6  H    0.108068
     7  H    0.108068
     8  H    0.106512
     9  H    0.106512
    10  H    0.106511
    11  H    0.106509
    12  H    0.108067
    13  H    0.108775
    14  H    0.108068
 Sum of Mulliken atomic charges =   0.00000

 Dipole moment (field-independent basis, Debye):
    X=              0.0000    Y=              0.0000    Z=              0.0000  Tot=              0.0000
 Quadrupole moment (field-independent basis, Debye-Ang):
   XX=            -29.7124   YY=            -28.6568   ZZ=            -28.0293
   XY=             -0.3371   XZ=              0.0000   YZ=              0.0000

 Normal termination of Gaussian 09 at Wed Jul 10 10:54:30 2019.
