 Gaussian 09, Revision D.01,
 Gaussian 09:  ES64L-G09RevD.01 24-Apr-2013

 ------------------------
 #opt freq b3lyp/6-31g(d)
 ------------------------

 --------------
 molecule_0 C=C
 --------------
 Symbolic Z-matrix:
 Charge =  0 Multiplicity = 1

 SCF Done:  E(RB3LYP) =  -78.5873014349     A.U. after    9 cycles
 SCF Done:  E(RB3LYP) =  -78.5874422398     A.U. after    7 cycles
 SCF Done:  E(RB3LYP) =  -78.5874582993     A.U. after    6 cycles
 Optimization completed.
    -- Stationary point found.
 Normal termination of Gaussian 09 at Tue Oct  1 16:16:35 2019.

 --------------------------------------------------------------------
 #N Geom=AllCheck Guess=TCheck SCRF=Check GenChk RB3LYP/6-31G(d) Freq
 --------------------------------------------------------------------

 Structure from the checkpoint file:  "/home/mateus/github/db_singletoxygen/chk/molecule_0.chk"
 --------------
 molecule_0 C=C
 --------------
 Charge =  0 Multiplicity = 1

                         Standard orientation:
 ---------------------------------------------------------------------
 Center     Atomic      Atomic             Coordinates (Angstroms)
 Number     Number       Type             X           Y           Z
 ---------------------------------------------------------------------
      1          6           0        0.000000    0.000000    0.665482
      2          6           0        0.000000    0.000000   -0.665482
      3          1           0       -0.923570    0.000001    1.239603
      4          1           0        0.923570    0.000001    1.239603
      5          1           0       -0.923570    0.000001   -1.239603
      6          1           0        0.923570    0.000001   -1.239603
 ---------------------------------------------------------------------

 SCF Done:  E(RB3LYP) =  -78.5874582993     A.U. after    1 cycles

 The electronic state is 1-A'.
 Alpha  occ. eigenvalues --  -10.18428 -10.18338  -0.75474  -0.57734  -0.46466
 Alpha  occ. eigenvalues --   -0.41641  -0.35321  -0.26662
 Alpha virt. eigenvalues --    0.01878   0.12237   0.14025   0.15756   0.24406
 Alpha virt. eigenvalues --    0.33237   0.48036   0.54847   0.56853   0.63727
 Alpha virt. eigenvalues --    0.65524   0.69901   0.84750   0.87219   0.93172

 Mulliken charges:
               1
     1  C   -0.285458
     2  C   -0.285458
     3  H    0.142729
     4  H    0.142729
     5  H    0.142729
     6  H    0.142729
 Sum of Mulliken charges =   0.00000

 Dipole moment (field-independent basis, Debye):
    X=              0.0000    Y=              0.0000    Z=              0.0000  Tot=              0.0000
 Quadrupole moment (field-independent basis, Debye-Ang):
   XX=            -12.1183   YY=            -15.0313   ZZ=            -11.9970
   XY=              0.0000   XZ=              0.0000   YZ=              0.0000

  Exact polarizability:  20.409   0.000   8.511   0.000   0.000  30.783
 Approx polarizability:  25.281   0.000  11.018   0.000   0.000  46.720

                      1                      2                      3
                     A'                     A"                     A'
 Frequencies --    835.0380               956.0181               975.7031
 Red. masses --      1.0427                 1.5208                 1.1607
 Frc consts  --      0.4284                 0.8189                 0.6511
 IR Inten    --      0.7351                 0.0000                83.0024

                      4                      5                      6
                     A"                     A"                     A'
 Frequencies --   1069.7667              1247.9775              1395.8496
 Red. masses --      1.0078                 1.5257                 1.2272
 Frc consts  --      0.6795                 1.4000                 1.4087
 IR Inten    --      0.0000                 0.0000                 0.0000

                      7                      8                      9
                     A"                     A'                     A"
 Frequencies --   1494.4974              1720.3383              3152.4209
 Red. masses --      1.1119                 3.1097                 1.0478
 Frc consts  --      1.4632                 5.4225                 6.1348
 IR Inten    --      5.2356                 0.0000                18.7479

                     10                     11                     12
                     A'                     A"                     A'
 Frequencies --   3167.8660              3222.7550              3248.2868
 Red. masses --      1.0737                 1.1150                 1.1176
 Frc consts  --      6.3485                 6.8228                 6.9480
 IR Inten    --      0.0000                 0.0000                33.5701

 - Thermochemistry -
 -------------------
 Temperature   298.150 Kelvin.  Pressure   1.00000 Atm.
 Atom     1 has atomic number  6 and mass  12.00000

 Molecular mass:    28.03130 amu.
 Principal axes and moments of inertia in atomic units:
                           1         2         3
     Eigenvalues --    12.27956  60.07731  72.35687
           X            0.00000   1.00000   0.00000
           Y            0.00000   0.00000   1.00000
           Z            1.00000   0.00000   0.00000
 This molecule is an asymmetric top.
 Rotational symmetry number  1.
 Rotational temperatures (Kelvin)      7.05350     1.44171     1.19704
 Rotational constants (GHZ):         146.97119    30.04031    24.94222
 Zero-point vibrational energy     134499.2 (Joules/Mol)
                                   32.14609 (Kcal/Mol)
 Vibrational temperatures:   1201.43  1375.50  1403.82  1539.15  1795.56
          (Kelvin)           2008.31  2150.25  2475.18  4535.62  4557.85
                             4636.82  4673.55

 Zero-point correction=                           0.051228 (Hartree/Particle)
 Thermal correction to Energy=                    0.054270
 Thermal correction to Enthalpy=                  0.055214
 Thermal correction to Gibbs Free Energy=         0.029044
 Sum of electronic and zero-point Energies=            -78.536230
 Sum of electronic and thermal Energies=               -78.533188
 Sum of electronic and thermal Enthalpies=             -78.532244
 Sum of electronic and thermal Free Energies=          -78.558414

                     E (Thermal)             CV                S
                      KCal/Mol        Cal/Mol-Kelvin    Cal/Mol-Kelvin
 Total                   34.055              8.089             55.080
 Electronic               0.000              0.000              0.000
 Translational            0.889              2.981             35.927
 Rotational               0.889              2.981             18.618
 Vibrational             32.277              2.128              0.535

 Optimization completed.
    -- Stationary point found.
 Normal termination of Gaussian 09 at Tue Oct  1 16:16:38 2019.
