 Gaussian 09, Revision C.01,
 Gaussian 09:  EM64L-G09RevC.01 23-Sep-2011

 -------------------------
 #opt freq blyp/6-31g(d,p)
 -------------------------

 99/9=1/99;
 -----------------------------------------------
 molecule_/home/mateus/github/db_singletoxygen 2
 -----------------------------------------------
 Charge =  0 Multiplicity = 1

 SCF Done:  E(RB-LYP) =  -726.842773937     A.U. after   18 cycles
 SCF Done:  E(RB-LYP) =  -726.854559714     A.U. after   14 cycles
 SCF Done:  E(RB-LYP) =  -726.855394208     A.U. after   13 cycles
 SCF Done:  E(RB-LYP) =  -726.855564087     A.U. after   11 cycles
 SCF Done:  E(RB-LYP) =  -726.855599412     A.U. after   10 cycles
 SCF Done:  E(RB-LYP) =  -726.855598351     A.U. after   10 cycles
 SCF Done:  E(RB-LYP) =  -726.855607892     A.U. after    9 cycles
 Optimization completed.
    -- Stationary point found.
 Normal termination of Gaussian 09 at Wed Aug 21 16:58:14 2019.

 ---------------------------------------------------------------------
 #N Geom=AllCheck Guess=TCheck SCRF=Check GenChk RBLYP/6-31G(d,p) Freq
 ---------------------------------------------------------------------

 Structure from the checkpoint file:  /opt/g09/Gau-29054.chk
 -----------------------------------------------
 molecule_/home/mateus/github/db_singletoxygen 2
 -----------------------------------------------
 Charge =  0 Multiplicity = 1

                         Standard orientation:
 ---------------------------------------------------------------------
 Center     Atomic      Atomic             Coordinates (Angstroms)
 Number     Number       Type             X           Y           Z
 ---------------------------------------------------------------------
      1          6           0       -4.364292   -0.358737    0.000032
      2          6           0       -2.853392   -0.304581   -0.000015
      3          6           0       -2.046030   -1.413212   -0.000001
      4          6           0       -0.605423   -1.323207   -0.000010
      5          6           0       -0.039193   -0.021049   -0.000034
      6          6           0        1.364364    0.138967   -0.000010
      7          6           0        2.155756   -1.035733    0.000016
      8          6           0        1.641682   -2.344082    0.000020
      9          6           0        0.251533   -2.466962    0.000020
     10          8           0        3.493250   -0.700759   -0.000027
     11          6           0        3.533096    0.694896   -0.000010
     12          6           0        2.287261    1.265225    0.000014
     13          6           0        1.951236    2.734005    0.000046
     14          8           0       -0.827294    1.105153   -0.000036
     15          6           0       -2.256513    1.038700   -0.000061
     16          8           0       -2.858460    2.102064    0.000011
     17          1           0       -4.722951   -1.398331    0.000012
     18          1           0       -4.776353    0.159492   -0.881322
     19          1           0       -4.776298    0.159429    0.881450
     20          1           0       -2.500528   -2.409699    0.000027
     21          1           0        2.302438   -3.211612    0.000026
     22          1           0       -0.207678   -3.458522    0.000032
     23          1           0        4.532107    1.121032   -0.000023
     24          1           0        2.864876    3.347136   -0.000156
     25          1           0        1.352143    3.007037    0.883334
     26          1           0        1.351775    3.006984   -0.883006
 ---------------------------------------------------------------------

 SCF Done:  E(RB-LYP) =  -726.855607892     A.U. after    1 cycles

 The electronic state is 1-A.
 Alpha  occ. eigenvalues --  -18.86579 -18.85438 -18.77696 -10.04195 -10.00350
 Alpha  occ. eigenvalues --   -9.99080  -9.98180  -9.95346  -9.95058  -9.94847
 Alpha  occ. eigenvalues --   -9.94474  -9.94428  -9.94260  -9.94205  -9.92984
 Alpha  occ. eigenvalues --   -9.92843  -1.00287  -0.99379  -0.91720  -0.77848
 Alpha  occ. eigenvalues --   -0.74432  -0.72632  -0.68246  -0.66824  -0.62802
 Alpha  occ. eigenvalues --   -0.62356  -0.57191  -0.57148  -0.54068  -0.52448
 Alpha  occ. eigenvalues --   -0.47335  -0.46017  -0.44948  -0.42655  -0.40830
 Alpha  occ. eigenvalues --   -0.40235  -0.39199  -0.38604  -0.36961  -0.36390
 Alpha  occ. eigenvalues --   -0.35933  -0.35880  -0.35659  -0.35212  -0.34334
 Alpha  occ. eigenvalues --   -0.33301  -0.32097  -0.32076  -0.30837  -0.28760
 Alpha  occ. eigenvalues --   -0.28649  -0.25562  -0.23888  -0.21556  -0.19443
 Alpha  occ. eigenvalues --   -0.18262
 Alpha virt. eigenvalues --   -0.07482  -0.04510  -0.01438   0.02015   0.05836
 Alpha virt. eigenvalues --    0.06395   0.07435   0.08331   0.10022   0.10636
 Alpha virt. eigenvalues --    0.10994   0.12326   0.12742   0.12915   0.13284

 Mulliken atomic charges:
              1
     1  C   -0.339816
     2  C    0.082304
     3  C   -0.124884
     4  C    0.174386
     5  C    0.167554
     6  C    0.091695
     7  C    0.275570
     8  C   -0.092643
     9  C   -0.150025
    10  O   -0.450850
    11  C    0.068903
    12  C    0.097744
    13  C   -0.347009
    14  O   -0.491915
    15  C    0.493928
    16  O   -0.440876
    17  H    0.091439
    18  H    0.124353
    19  H    0.124354
    20  H    0.068390
    21  H    0.075700
    22  H    0.065336
    23  H    0.091000
    24  H    0.095052
    25  H    0.125151
    26  H    0.125158
 Sum of Mulliken atomic charges =   0.00000

 Dipole moment (field-independent basis, Debye):
    X=              1.3823    Y=             -2.5795    Z=              0.0000  Tot=              2.9265
 Quadrupole moment (field-independent basis, Debye-Ang):
   XX=            -85.8207   YY=            -88.5374   ZZ=            -91.9006
   XY=             13.3246   XZ=              0.0002   YZ=             -0.0002

  Exact polarizability: 235.950  -5.932 169.022  -0.001   0.000  60.602
 Approx polarizability: 495.477 -62.585 381.766  -0.002   0.000 106.618

                     1                      2                      3
                     A                      A                      A
 Frequencies --    68.0975                78.1548               130.1014
 Red. masses --     4.7295                 4.3622                 1.1144
 Frc consts  --     0.0129                 0.0157                 0.0111
 IR Inten    --     4.1134                 0.1932                 0.1346

                     4                      5                      6
                     A                      A                      A
 Frequencies --   140.6475               143.6211               144.2067
 Red. masses --     4.3800                 3.9457                 1.0732
 Frc consts  --     0.0510                 0.0480                 0.0131
 IR Inten    --     0.3459                 1.4243                 0.3403

                     7                      8                      9
                     A                      A                      A
 Frequencies --   206.2429               252.7303               261.1162
 Red. masses --     3.4798                 3.1663                 6.1857
 Frc consts  --     0.0872                 0.1192                 0.2485
 IR Inten    --     0.0085                 1.1840                 0.9594

                    10                     11                     12
                     A                      A                      A
 Frequencies --   297.3176               308.8441               352.9861
 Red. masses --     4.2892                 4.1254                 4.4345
 Frc consts  --     0.2234                 0.2318                 0.3255
 IR Inten    --     1.0241                 0.0228                 0.1699

                    13                     14                     15
                     A                      A                      A
 Frequencies --   364.5611               409.0342               426.7879
 Red. masses --     6.7778                 3.7550                 6.4812
 Frc consts  --     0.5307                 0.3702                 0.6956
 IR Inten    --    10.6894                 0.1938                 1.5255

                    16                     17                     18
                     A                      A                      A
 Frequencies --   481.0918               519.0471               539.3446
 Red. masses --     5.2652                 4.4199                 5.8497
 Frc consts  --     0.7180                 0.7016                 1.0026
 IR Inten    --    15.2408                 1.1234                 4.1928

                    19                     20                     21
                     A                      A                      A
 Frequencies --   569.8890               594.2783               614.4082
 Red. masses --     5.3384                 3.8204                 5.4829
 Frc consts  --     1.0215                 0.7949                 1.2195
 IR Inten    --     0.4835                 3.9947                 0.4958

                    22                     23                     24
                     A                      A                      A
 Frequencies --   637.5980               649.5113               697.2263
 Red. masses --     4.6160                 6.9393                 6.5074
 Frc consts  --     1.1056                 1.7248                 1.8638
 IR Inten    --     2.2532                 6.8883                 2.7101

                    25                     26                     27
                     A                      A                      A
 Frequencies --   708.9213               729.5440               741.2565
 Red. masses --     6.4908                 8.9881                 1.3574
 Frc consts  --     1.9220                 2.8185                 0.4394
 IR Inten    --    11.4796                 4.8399                21.0331

                    28                     29                     30
                     A                      A                      A
 Frequencies --   771.4827               777.8035               816.9282
 Red. masses --     5.8485                 1.4598                 7.8392
 Frc consts  --     2.0509                 0.5203                 3.0824
 IR Inten    --    16.3413                11.3487                 3.2573

                    31                     32                     33
                     A                      A                      A
 Frequencies --   889.6250               908.1776               945.8954
 Red. masses --     1.2758                 1.3682                 5.7719
 Frc consts  --     0.5949                 0.6649                 3.0427
 IR Inten    --     5.4262                 7.3423                87.6023

                    34                     35                     36
                     A                      A                      A
 Frequencies --   978.0881               990.4775              1006.9322
 Red. masses --     5.1753                 1.5779                 1.8028
 Frc consts  --     2.9170                 0.9121                 1.0769
 IR Inten    --    10.3014                27.1281                10.6717

                    37                     38                     39
                     A                      A                      A
 Frequencies --  1032.7164              1037.8399              1040.1479
 Red. masses --     3.6106                 1.4630                 1.4549
 Frc consts  --     2.2688                 0.9285                 0.9274
 IR Inten    --    64.3913                 2.8384                 1.4741

                    40                     41                     42
                     A                      A                      A
 Frequencies --  1069.1885              1104.1487              1163.0306
 Red. masses --     6.1446                 1.5949                 2.0783
 Frc consts  --     4.1386                 1.1456                 1.6563
 IR Inten    --    34.3168                 3.8322                 4.4324

                    43                     44                     45
                     A                      A                      A
 Frequencies --  1184.7493              1207.3552              1239.6682
 Red. masses --     1.9625                 2.7365                 2.6926
 Frc consts  --     1.6229                 2.3503                 2.4380
 IR Inten    --    10.5018                16.9045                 8.4820

                    46                     47                     48
                     A                      A                      A
 Frequencies --  1277.7274              1324.0943              1356.4510
 Red. masses --     2.4501                 4.2411                 2.4359
 Frc consts  --     2.3567                 4.3809                 2.6407
 IR Inten    --    42.8743                38.0092                11.7010

                    49                     50                     51
                     A                      A                      A
 Frequencies --  1377.0736              1391.3538              1398.1639
 Red. masses --     4.4076                 1.3152                 1.2674
 Frc consts  --     4.9246                 1.5001                 1.4597
 IR Inten    --     6.9577                 0.9342                 1.2409

                    52                     53                     54
                     A                      A                      A
 Frequencies --  1430.2908              1447.9037              1451.8148
 Red. masses --     3.7653                 1.0441                 3.9387
 Frc consts  --     4.5383                 1.2897                 4.8913
 IR Inten    --     6.9889                 5.0476                 6.7800

                    55                     56                     57
                     A                      A                      A
 Frequencies --  1456.1431              1465.8558              1466.7449
 Red. masses --     1.0424                 1.1242                 1.1643
 Frc consts  --     1.3023                 1.4232                 1.4758
 IR Inten    --     5.7672                 3.2383                13.6063

                    58                     59                     60
                     A                      A                      A
 Frequencies --  1551.6615              1580.7505              1587.2456
 Red. masses --     5.8628                 6.0940                 7.3758
 Frc consts  --     8.3166                 8.9718                10.9484
 IR Inten    --     0.5437                19.6362               108.5355

                    61                     62                     63
                     A                      A                      A
 Frequencies --  1619.7249              1745.2578              2972.5166
 Red. masses --     6.4641                12.6617                 1.0353
 Frc consts  --     9.9917                22.7228                 5.3898
 IR Inten    --    14.6629               447.8321                28.2291

                    64                     65                     66
                     A                      A                      A
 Frequencies --  2976.5727              3023.6418              3030.8311
 Red. masses --     1.0351                 1.0996                 1.1005
 Frc consts  --     5.4034                 5.9232                 5.9559
 IR Inten    --    23.0178                12.5017                12.3408

                    67                     68                     69
                     A                      A                      A
 Frequencies --  3050.9389              3056.5866              3086.3724
 Red. masses --     1.1027                 1.1029                 1.0898
 Frc consts  --     6.0473                 6.0710                 6.1163
 IR Inten    --    20.3056                13.6000                20.0027

                    70                     71                     72
                     A                      A                      A
 Frequencies --  3113.2967              3145.6039              3205.7143
 Red. masses --     1.0883                 1.0937                 1.0974
 Frc consts  --     6.2150                 6.3762                 6.6445
 IR Inten    --     7.5827                 6.7295                 1.0233

 - Thermochemistry -
 -------------------
 Temperature   298.150 Kelvin.  Pressure   1.00000 Atm.
 Atom     1 has atomic number  6 and mass  12.00000

 Molecular mass:   214.06299 amu.
 Principal axes and moments of inertia in atomic units:
                           1         2         3
     Eigenvalues --  1745.299244517.737486240.62453
           X            0.99940   0.03475   0.00000
           Y           -0.03475   0.99940   0.00000
           Z            0.00000   0.00000   1.00000
 This molecule is an asymmetric top.
 Rotational symmetry number  1.
 Warning -- assumption of classical behavior for rotation
           may cause significant error
 Rotational temperatures (Kelvin)      0.04963     0.01917     0.01388
 Rotational constants (GHZ):           1.03406     0.39948     0.28919
 Zero-point vibrational energy     507343.2 (Joules/Mol)
                                  121.25793 (Kcal/Mol)
 Warning -- explicit consideration of  21 degrees of freedom as
           vibrations may cause significant error
 Vibrational temperatures:     97.98   112.45   187.19   202.36   206.64
          (Kelvin)            207.48   296.74   363.62   375.69   427.77
                              444.36   507.87   524.52   588.51   614.05
                              692.18   746.79   776.00   819.94   855.03
                              884.00   917.36   934.50  1003.15  1019.98
                             1049.65  1066.50  1109.99  1119.08  1175.38
                             1279.97  1306.66  1360.93  1407.25  1425.07
                             1448.75  1485.85  1493.22  1496.54  1538.32
                             1588.62  1673.34  1704.59  1737.11  1783.60
                             1838.36  1905.07  1951.63  1981.30  2001.85
                             2011.64  2057.87  2083.21  2088.84  2095.06
                             2109.04  2110.32  2232.49  2274.34  2283.69
                             2330.42  2511.03  4276.78  4282.62  4350.34
                             4360.68  4389.62  4397.74  4440.60  4479.33
                             4525.82  4612.30

 Zero-point correction=                           0.193237 (Hartree/Particle)
 Thermal correction to Energy=                    0.206587
 Thermal correction to Enthalpy=                  0.207531
 Thermal correction to Gibbs Free Energy=         0.153724
 Sum of electronic and zero-point Energies=           -726.662371
 Sum of electronic and thermal Energies=              -726.649021
 Sum of electronic and thermal Enthalpies=            -726.648077
 Sum of electronic and thermal Free Energies=         -726.701884

                     E (Thermal)             CV                S
                      KCal/Mol        Cal/Mol-Kelvin    Cal/Mol-Kelvin
 Total                  129.635             52.626            113.248
 Electronic               0.000              0.000              0.000
 Translational            0.889              2.981             41.987
 Rotational               0.889              2.981             32.265
 Vibrational            127.858             46.664             38.996
 Vibration     1          0.598              1.969              4.208
 Vibration     2          0.599              1.964              3.937
 Vibration     3          0.612              1.923              2.945
 Vibration     4          0.615              1.913              2.795
 Vibration     5          0.616              1.910              2.755
 Vibration     6          0.616              1.909              2.747
 Vibration     7          0.641              1.831              2.077
 Vibration     8          0.664              1.758              1.711
 Vibration     9          0.669              1.744              1.654
 Vibration    10          0.691              1.679              1.432
 Vibration    11          0.698              1.657              1.369
 Vibration    12          0.729              1.569              1.153
 Vibration    13          0.738              1.545              1.103
 Vibration    14          0.773              1.451              0.930
 Vibration    15          0.788              1.412              0.869
 Vibration    16          0.837              1.292              0.707
 Vibration    17          0.874              1.208              0.612
 Vibration    18          0.894              1.163              0.567
 Vibration    19          0.926              1.096              0.504
 Vibration    20          0.952              1.044              0.460
 Vibration    21          0.974              1.001              0.426

 Optimization completed.
    -- Stationary point found.
 Normal termination of Gaussian 09 at Wed Aug 21 17:01:38 2019.
