 Gaussian 09, Revision C.01,
 Gaussian 09:  EM64L-G09RevC.01 23-Sep-2011

 -------------------------
 #opt freq blyp/6-31g(d,p)
 -------------------------

 99/9=1/99;
 -----------------------------------------------
 molecule_/home/mateus/github/db_singletoxygen 2
 -----------------------------------------------
 Charge =  0 Multiplicity = 1

 SCF Done:  E(RB-LYP) =  -154.652632672     A.U. after   15 cycles
 SCF Done:  E(RB-LYP) =  -154.668087009     A.U. after   14 cycles
 SCF Done:  E(RB-LYP) =  -154.668740034     A.U. after   13 cycles
 SCF Done:  E(RB-LYP) =  -154.665900741     A.U. after   15 cycles
 SCF Done:  E(RB-LYP) =  -154.668853748     A.U. after   15 cycles
 SCF Done:  E(RB-LYP) =  -154.667846701     A.U. after   13 cycles
 SCF Done:  E(RB-LYP) =  -154.668903433     A.U. after   13 cycles
 SCF Done:  E(RB-LYP) =  -154.668953456     A.U. after   10 cycles
 SCF Done:  E(RB-LYP) =  -154.668955942     A.U. after    9 cycles
 Optimization completed.
    -- Stationary point found.
 Normal termination of Gaussian 09 at Wed Jul 10 16:52:38 2019.

 ---------------------------------------------------------------------
 #N Geom=AllCheck Guess=TCheck SCRF=Check GenChk RBLYP/6-31G(d,p) Freq
 ---------------------------------------------------------------------

 Structure from the checkpoint file:  /opt/g09/Gau-5193.chk
 -----------------------------------------------
 molecule_/home/mateus/github/db_singletoxygen 2
 -----------------------------------------------
 Charge =  0 Multiplicity = 1

                         Standard orientation:
 ---------------------------------------------------------------------
 Center     Atomic      Atomic             Coordinates (Angstroms)
 Number     Number       Type             X           Y           Z
 ---------------------------------------------------------------------
      1          6           0       -1.927811   -0.170402    0.000003
      2          6           0       -0.737633    0.107519   -0.000009
      3          6           0        0.636113    0.490610    0.000000
      4          6           0        1.678379   -0.372217    0.000001
      5          1           0       -2.963683   -0.442277    0.000015
      6          1           0        0.834356    1.569702    0.000007
      7          1           0        1.528080   -1.453636   -0.000005
      8          1           0        2.706957   -0.006844    0.000008
 ---------------------------------------------------------------------

 SCF Done:  E(RB-LYP) =  -154.668955942     A.U. after    1 cycles

 The electronic state is 1-A.
 Alpha  occ. eigenvalues --   -9.95115  -9.93440  -9.92773  -9.92275  -0.71302
 Alpha  occ. eigenvalues --   -0.64405  -0.54738  -0.46476  -0.42766  -0.38594
 Alpha  occ. eigenvalues --   -0.32880  -0.28335  -0.22651  -0.20171
 Alpha virt. eigenvalues --   -0.05076   0.01846   0.09337   0.09491   0.11004
 Alpha virt. eigenvalues --    0.11521   0.15747   0.26607   0.31368   0.38877
 Alpha virt. eigenvalues --    0.42908   0.47957   0.48971   0.53314   0.54624

 Mulliken atomic charges:
              1
     1  C   -0.406260
     2  C    0.327005
     3  C   -0.153659
     4  C   -0.176516
     5  H    0.125221
     6  H    0.096609
     7  H    0.094733
     8  H    0.092868
 Sum of Mulliken atomic charges =   0.00000

 Dipole moment (field-independent basis, Debye):
    X=              0.2894    Y=              0.0152    Z=              0.0000  Tot=              0.2898
 Quadrupole moment (field-independent basis, Debye-Ang):
   XX=            -18.1771   YY=            -22.5594   ZZ=            -25.7272
   XY=              1.1282   XZ=              0.0000   YZ=              0.0000

  Exact polarizability:  74.413  -0.231  30.754   0.000   0.000  15.132
 Approx polarizability: 176.478  -4.639  52.845   0.000   0.000  22.677

                     1                      2                      3
                     A                      A                      A
 Frequencies --   219.4048               326.9739               531.1869
 Red. masses --     3.2664                 2.4968                 1.2436
 Frc consts  --     0.0926                 0.1573                 0.2067
 IR Inten    --     1.1129                 2.3092                46.9084

                     4                      5                      6
                     A                      A                      A
 Frequencies --   533.6597               583.8940               691.0061
 Red. masses --     3.6732                 1.2008                 1.9208
 Frc consts  --     0.6163                 0.2412                 0.5404
 IR Inten    --     1.3799                43.5117                 0.9094

                     7                      8                      9
                     A                      A                      A
 Frequencies --   877.0494               896.5955               975.5538
 Red. masses --     2.5348                 1.3707                 1.0870
 Frc consts  --     1.1488                 0.6492                 0.6095
 IR Inten    --     2.1414                28.8812                16.1920

                    10                     11                     12
                     A                      A                      A
 Frequencies --  1087.5067              1290.9442              1416.1776
 Red. masses --     1.6875                 1.2896                 1.2403
 Frc consts  --     1.1759                 1.2663                 1.4656
 IR Inten    --     3.9960                 0.3969                 1.2593

                    13                     14                     15
                     A                      A                      A
 Frequencies --  1620.3565              2144.0197              3063.1956
 Red. masses --     3.8254                 6.2680                 1.0851
 Frc consts  --     5.9176                16.9760                 5.9990
 IR Inten    --     7.9236                 0.1683                11.0331

                    16                     17                     18
                     A                      A                      A
 Frequencies --  3091.4942              3181.5493              3415.1610
 Red. masses --     1.0603                 1.1174                 1.1527
 Frc consts  --     5.9708                 6.6641                 7.9210
 IR Inten    --     4.2094                11.2371                60.1788

 - Thermochemistry -
 -------------------
 Temperature   298.150 Kelvin.  Pressure   1.00000 Atm.
 Atom     1 has atomic number  6 and mass  12.00000

 Molecular mass:    52.03130 amu.
 Principal axes and moments of inertia in atomic units:
                           1         2         3
     Eigenvalues --    35.15598 389.22937 424.38535
           X            0.99999   0.00368   0.00000
           Y           -0.00368   0.99999   0.00000
           Z            0.00000   0.00000   1.00000
 This molecule is an asymmetric top.
 Rotational symmetry number  1.
 Rotational temperatures (Kelvin)      2.46370     0.22253     0.20409
 Rotational constants (GHZ):          51.33526     4.63670     4.25260
 Zero-point vibrational energy     155189.9 (Joules/Mol)
                                   37.09128 (Kcal/Mol)
 Warning -- explicit consideration of   5 degrees of freedom as
           vibrations may cause significant error
 Vibrational temperatures:    315.67   470.44   764.26   767.82   840.09
          (Kelvin)            994.20  1261.88  1290.00  1403.60  1564.68
                             1857.38  2037.56  2331.33  3084.76  4407.25
                             4447.97  4577.53  4913.65

 Zero-point correction=                           0.059109 (Hartree/Particle)
 Thermal correction to Energy=                    0.063750
 Thermal correction to Enthalpy=                  0.064694
 Thermal correction to Gibbs Free Energy=         0.032973
 Sum of electronic and zero-point Energies=           -154.609847
 Sum of electronic and thermal Energies=              -154.605206
 Sum of electronic and thermal Enthalpies=            -154.604262
 Sum of electronic and thermal Free Energies=         -154.635983

                     E (Thermal)             CV                S
                      KCal/Mol        Cal/Mol-Kelvin    Cal/Mol-Kelvin
 Total                   40.003             15.705             66.763
 Electronic               0.000              0.000              0.000
 Translational            0.889              2.981             37.771
 Rotational               0.889              2.981             23.278
 Vibrational             38.226              9.744              5.714
 Vibration     1          0.647              1.812              1.964
 Vibration     2          0.711              1.622              1.275
 Vibration     3          0.886              1.181              0.585
 Vibration     4          0.889              1.176              0.579
 Vibration     5          0.941              1.066              0.478

 Optimization completed.
    -- Stationary point found.
 Normal termination of Gaussian 09 at Wed Jul 10 16:52:44 2019.
