 Gaussian 09, Revision C.01,
 Gaussian 09:  EM64L-G09RevC.01 23-Sep-2011

 --------------
 #hf/6-31g(d,p)
 --------------

 99/5=1,9=1/99;
 ------------------------------------
 molecule_~/github/db_singletoxygen 2
 ------------------------------------
 Charge =  0 Multiplicity = 1

                         Standard orientation:
 ---------------------------------------------------------------------
 Center     Atomic      Atomic             Coordinates (Angstroms)
 Number     Number       Type             X           Y           Z
 ---------------------------------------------------------------------
      1          6           0        0.000000    0.000000    0.667896
      2          6           0        0.000000    0.000000   -0.667894
      3          1           0        0.000000    0.929968    1.227756
      4          1           0        0.000000   -0.929968    1.227756
      5          1           0        0.000000    0.929968   -1.227764
      6          1           0        0.000000   -0.929968   -1.227764
 ---------------------------------------------------------------------

 SCF Done:  E(RHF) =  -78.0380433912     A.U. after    9 cycles

 The electronic state is 1-A1.
 Alpha  occ. eigenvalues --  -11.22958 -11.22795  -1.02668  -0.78545  -0.63733
 Alpha  occ. eigenvalues --   -0.57750  -0.50226  -0.37004
 Alpha virt. eigenvalues --    0.17835   0.26270   0.29185   0.30816   0.38936
 Alpha virt. eigenvalues --    0.48876   0.66144   0.76701   0.77605   0.84948
 Alpha virt. eigenvalues --    0.88977   0.95378   1.08309   1.11681   1.16906

 Mulliken atomic charges:
              1
     1  C   -0.257207
     2  C   -0.257207
     3  H    0.128604
     4  H    0.128604
     5  H    0.128603
     6  H    0.128603
 Sum of Mulliken atomic charges =   0.00000

 Dipole moment (field-independent basis, Debye):
    X=              0.0000    Y=              0.0000    Z=              0.0000  Tot=              0.0000
 Quadrupole moment (field-independent basis, Debye-Ang):
   XX=            -15.4573   YY=            -12.1597   ZZ=            -12.0968
   XY=              0.0000   XZ=              0.0000   YZ=              0.0000

 Normal termination of Gaussian 09 at Wed Jul 10 10:54:30 2019.
